# vtk DataFile Version 4.0
./result.vtk
ASCII
DATASET UNSTRUCTURED_GRID
POINTS 9 float
-1 -1
0 -1
1 -1
-1 0
0 0
1 0
-1 1
0 1
1 1
CELLS 8 32
3 1 2 4
3 2 5 4
3 2 3 5
3 3 6 5
3 4 5 7
3 5 8 7
3 5 6 8
3 6 9 8
CELL_TYPES 8
5
5
5
5
5
5
5
5
POINT_DATA 9
SCALARS t double 1
LOOKUP_TABLE default
100
64
37
100
59.5
10
100
64
37
